TITLE = "Written by meshio v5.3.4"
VARIABLES = "X", "Y", "Z"
ZONE N=12295, E=63374,
DATAPACKING=BLOCK, ET=TETRAHEDRON
-66.0 -66.0 -66.0 -66.0 25.0 25.0 25.0 -60.952 -60.834 -60.8042 -60.8262 -60.9043 -60.8106 -60.8593 -61.2518 -60.8042 -60.7639 -60.768 -60.7851 -60.6408
-61.0143 -60.9758 -60.4945 -52.4714 -52.9068 -52.8333 -52.6657 -52.8333 -52.6839 -52.8333 -52.6839 -52.8333 -52.8328 -52.8333 -52.784 -52.738 -52.4178 -52.933 -52.8451 -44.1738
-44.4888 -44.75 -44.6893 -44.75 -44.6893 -44.75 -44.6893 -44.75 -44.973 -44.75 -44.7196 -44.649 -45.3489 -44.3649 -44.8309 -36.9125 -36.5456 -36.6667 -36.8735 -36.6667
-36.8735 -36.6667 -36.8735 -36.6667 -36.7696 -36.6667 -36.6003 -36.6667 -36.656 -36.5002 -36.4062 -28.356 -28.5428 -28.5833 -28.7796 -28.5833 -28.7796 -28.5833 -28.404 -28.4069
-28.6353 -28.4464 -28.7511 -28.5833 -28.6509 -28.5872 -28.7646 -20.2727 -20.6783 -20.5 -20.4393 -20.5 -20.5119 -20.4046 -20.5761 -20.4975 -20.6044 -20.4482 -20.308 -20.5
-20.5502 -20.2412 -20.4507 -12.2778 -12.5416 -12.4167 -12.5756 -12.4167 -12.56 -12.3157 -12.4162 -12.3556 -12.3483 -12.5177 -12.4886 -12.2972 -12.3344 -12.2442 -12.3088 -4.02129
-4.31224 -4.33333 -4.52963 -4.15694 -4.52963 -4.48358 -4.50114 -4.08715 -4.39701 -4.33314 -4.3731 -4.23233 -3.8645 -4.04589 -3.82434 3.98195 3.81925 4.03035 3.60299 4.15864
3.81067 3.80181 3.87163 3.75 3.6293 3.75 3.72606 3.75 3.77178 3.47756 3.7941 12.0261 11.3934 11.9921 12.2135 11.9124 11.9208 12.0751 11.9208 11.8333
11.9208 11.8333 12.0182 11.8333 12.188 11.7949 11.5594 19.6491 20.0165 20.1734 19.9589 19.8139 19.7296 19.9263 19.7604 19.7017 19.6424 19.807 19.6702 19.9837
-63.4949 12.7545 -3.49087 -63.3164 9.03526 -63.4062 -7.13141 -63.7147 -24.1869 -63.4527 -12.4167 -63.7147 25.0 9.03526 -23.6624 -7.13141 2.35096 -55.7485 -55.6314 -21.899
-17.8574 -41.967 -55.9433 25.0 10.7678 -6.01003 -55.9433 -21.842 22.0 -55.7665 22.2312 22.1752 -55.9086 10.5662 -5.9012 -22.2746 -55.9655 -15.0593 -55.4849 -63.8922
-56.2606 7.79167 7.79167 -47.5481 7.79167 7.79167 7.79167 -47.5481 7.79167 -56.875 -56.9942 -47.86 -57.1262 -57.0314 -40.7083 -47.86 -40.7083 -40.7083 -40.7083 -47.6122
-32.625 -32.625 -32.625 -32.625 -16.4583 -16.4583 -47.841 -16.4583 -16.4583 -8.375 -48.0394 -47.6746 -52.9371 -8.375 -39.5553 -8.375 -8.375 7.79167 -39.7333 -57.0665
-56.946 -40.7083 -39.7464 -40.7083 -32.625 -32.625 -39.7464 -16.4583 -16.4583 -8.375 -39.4647 -8.375 -57.0665 -48.7917 -48.7917 -48.7917 -48.7917 -40.7083 -39.3238 -44.75
-32.625 -24.5417 -31.2016 -24.5417 -24.5816 -24.5417 -31.6785 -16.4583 -8.375 -0.291667 -31.6785 -0.331554 -0.291667 -0.291667 -31.6785 15.875 15.875 15.875 -31.4412 15.875
-48.7917 -48.7917 -31.3814 -36.6667 -24.5417 -24.5417 -0.291667 -23.5546 -0.291667 16.082 15.875 -23.4984 -48.7917 -24.5417 -0.291667 -23.5141 16.0425 -23.2981 -23.2981 -51.4857
22.5464 -66.0 -23.2981 6.3643 -15.183 -9.44635 -66.0 -66.0 -15.5674 -55.646 2.35096 -21.899 -15.4198 -41.9659 -63.6091 -63.529 -63.6211 -63.8285 -63.6211 -15.7764
-20.5 -16.4583 -7.10767 -0.383701 7.87559 7.79167 -7.4285 7.79167 7.79167 8.01376 -7.3371 7.84536 -56.5019 -56.9922 -7.13141 -12.7763 -12.4167 -56.9922 -56.9404 1.2364
-40.7083 -40.7083 0.950829 -40.7083 -41.0735 -32.625 0.751604 -32.5596 -32.625 -32.3612 0.930132 -16.5004 -16.393 -16.393 -16.372 8.80191 9.13711 -8.45732 -8.57259 -8.32131
8.82503 7.79167 -56.9287 -56.9922 -40.7083 -40.7083 17.1186 12.3224 -32.625 19.9167 19.9167 -32.625 -16.4583 -16.4583 -8.375 -8.30965 -56.9922 -48.2859 -48.7917 -48.7917
-40.6854 -48.7263 -40.7083 -23.9966 -32.3213 -24.5417 -24.893 -24.4763 -24.4331 -60.6655 -16.3805 -8.26001 -0.226316 -60.9167 -0.291667 -0.345357 15.9404 -60.9167 15.9922 15.9287
-48.7917 -60.8152 -48.7917 -24.5417 -24.5417 -60.8152 -0.237976 -0.589296 15.5298 -60.8152 -48.7917 -0.357017 15.9922 -60.9167 -5.72313 10.6463 -36.9159 -60.9167 -60.7399 -66.0
-57.9096 -52.8333 -31.198 -52.8333 -23.4489 -52.8333 -52.8333 25.0 25.0 -50.3835 -52.8333 -47.4958 25.0 -52.8333 -52.1946 -49.9481 -44.75 -55.8923 7.47713 -8.77568
-44.75 25.0 -44.75 -44.75 -44.75 -44.75 -60.6393 -60.4968 -60.6841 -44.75 -60.4846 -52.8333 -52.8401 -52.847 -36.6667 -52.8417 -44.75 -44.75 -36.6667 -44.7484
-44.7503 -36.6667 -36.6667 -36.6667 -36.6667 -36.6667 -36.6667 -28.5833 -28.5795 -28.3387 -36.6667 -28.5833 -20.5 -20.5 -36.6667 -20.5023 -20.5 -36.6667 -12.4167 -12.4177
-28.5833 -12.4167 -12.4167 -4.33333 -28.5833 -4.08872 -4.33333 -4.33333 -28.5833 3.75 3.74766 3.75 -28.5833 3.75 11.8333 11.8333 -28.5833 -29.107 -25.7853 -25.5
-28.5833 11.8333 11.8333 -20.5 19.717 19.6081 19.7866 -20.5 20.1538 -20.5 -19.5877 -17.7019 -20.5 -12.4167 -66.0 -66.0 -12.4167 -12.4167 -60.5062 -60.97
-52.8438 -12.8884 -52.8374 -44.75 -44.75 -36.6667 -4.33333 -36.6667 -28.5833 -28.5833 -4.33333 -20.5 -20.5 -12.4167 -4.33333 -4.77303 -1.53526 -1.53526 -4.33333 -12.4167
-4.33333 3.80794 -4.32955 3.75 3.75 3.75 3.18055 11.8451 6.82767 3.75 11.8333 19.5724 11.8333 19.588 14.6314 11.8333 19.6574 -66.0 -63.8267 -55.3853
-55.7433 -60.5062 -52.8438 -44.75 -36.6667 -28.5833 -20.5 -60.956 -12.4157 -52.8333 -4.33832 3.75 11.8427 20.0204 -66.0 -59.5503 -66.0 -55.8877 -44.7989 -39.2312
-44.75 -39.5767 -39.4788 -31.4933 -31.7898 -23.41 -23.41 -20.5 -15.2855 -12.2792 -7.24333 -7.24333 0.660073 9.17077 17.1094 -60.9554 -55.7896 -50.7003 -44.8263 -42.6763
-45.7764 -36.8616 -33.8686 7.7909 7.79167 7.79167 7.79167 7.79167 7.79167 7.79167 8.22441 -28.7062 -25.7853 -20.963 -56.896 -57.0723 -20.5 -56.8754 -56.8757 -57.0723
-56.9504 -57.1386 -17.7019 -56.9389 -40.6265 -40.7083 -40.7083 -12.1091 -40.7083 -40.7083 -40.7083 -12.4167 -40.7083 -40.4293 -9.97684 -12.5739 -33.0821 -32.625 -32.625 -32.625
-32.625 -32.625 -4.33333 -32.625 -32.4348 -4.33333 -17.0284 -4.33333 -16.4583 -16.4583 -16.4583 -4.21252 -16.4583 -16.4583 -16.4583 -16.5025 -8.8515 -8.375 3.34313 -8.375
-8.375 -8.375 3.75 -8.375 -8.375 -8.36537 3.75 3.75 3.81001 -48.7182 -48.7917 -48.7917 14.6314 -48.7917 11.8484 -48.7917 -48.7917 -48.7917 11.8333 -48.8135
11.8333 -25.3052 11.8333 -24.5417 -24.5417 -24.5417 11.8933 -24.5417 -24.7849 -24.5419 -24.6138 20.0497 19.9542 19.7101 -0.01978 -0.291667 -0.291667 19.9167 -0.53486 -0.291937
-0.291667 19.9167 -0.291667 0.055882 19.9167 15.377 19.9626 15.8756 15.875 15.875 19.9167 15.8762 15.8762 -60.9167 15.875 -58.1186 15.8233 -50.0353 -54.736 -66.0
15.875 11.2488 -66.0 -4.33504 -66.0 -66.0 -66.0 -51.8538 -11.9848 -66.0 -66.0 -66.0 -66.0 -66.0 -66.0 -66.0 -66.0 -66.0 8.17647 8.03767
7.79167 -66.0 8.03101 -66.0 7.79167 -66.0 7.85795 -66.0 -66.0 -66.0 7.79167 7.7932 -66.0 -66.0 -66.0 7.80573 7.79167 7.79167 7.79167 -66.0
7.79916 -66.0 8.1091 -66.0 -66.0 -66.0 -66.0 -66.0 -66.0 7.87652 -66.0 -66.0 7.80431 -66.0 -66.0 -66.0 -66.0 -35.4231 -35.4231 -35.4231
4.92527 4.8983 7.79167 -66.0 -66.0 -66.0 -56.8916 -56.8809 -66.0 -56.9066 -66.0 -66.0 -56.8099 -56.886 -56.9291 -57.3014 -56.6493 -40.7083 -40.5891 -66.0
-66.0 -40.7083 -66.0 -66.0 -40.5575 -66.0 -66.0 -66.0 -66.0 -66.0 -66.0 -40.7083 -66.0 -66.0 -40.6897 -66.0 -66.0 -66.0 -66.0 -66.0
-41.0115 -40.3699 -32.625 -32.4452 -32.6156 -32.7216 -44.2792 -32.625 -44.75 -41.3674 -33.091 -32.3411 -32.4365 -36.6667 -36.2805 -31.3656 -31.2002 -36.6667 -33.2841 -16.4489
-28.5833 -16.2073 -16.6376 -16.7787 -16.4489 -16.2044 -16.4514 -16.2905 -15.2147 -8.14213 -15.7698 -8.19105 -8.64796 -15.2147 -8.46339 -20.5 -15.4862 -8.36751 -8.5166 -7.13141
-7.13141 -8.3609 -8.49477 7.79167 8.03767 -59.6731 -59.6731 -59.6731 -51.5897 -9.19283 -51.5897 -51.5773 -35.4231 -35.4231 -4.33333 -11.1731 -11.1731 4.99359 4.99359 13.0769
0.951923 -56.875 -56.875 -56.875 0.511274 -40.7083 -40.7083 -40.7083 0.198375 -40.7083 -32.625 -4.22889 -0.950769 -32.625 -32.625 -16.4583 -8.29318 -8.375 8.74368 -32.625
-16.4583 -8.375 8.99511 7.79167 4.99359 13.0769 8.54481 -56.8975 -56.9469 -56.8921 3.75 7.36106 -56.8096 -40.7083 -40.5891 16.7059 -40.7083 -40.5891 16.9532 -32.625
-32.4569 16.9532 -32.625 -32.4452 17.0601 -16.4583 17.1186 -16.3092 17.1186 -16.4583 -16.2015 11.1527 15.2159 -8.375 -8.19517 -8.36556 -8.24883 -59.6731 -59.6731 -59.6731
-51.5897 -27.3397 -27.3397 -27.3004 -19.2564 -18.9414 -11.1731 -3.08974 -3.08974 -56.875 -56.875 -40.7083 -40.7083 -32.625 -32.625 -16.4583 -16.4583 -8.375 -8.375 19.6918
-11.2257 -54.3316 13.0769 13.0769 -47.9643 -42.9592 -39.5767 -35.3499 -31.4933 -25.0921 -56.9053 -21.2407 -18.4426 -56.8417 -12.4167 -7.24333 -1.95808 0.84 8.73896 16.8077
-48.7917 -61.924 -48.7675 -52.9221 -48.7917 -48.9491 -49.7645 -41.84 -44.75 -41.84 -41.84 -36.6667 -36.5685 -48.7822 -38.2073 -33.8126 -28.5833 -48.501 -28.2242 -25.4449
-20.7299 -17.59 -49.1084 -20.5611 -21.8247 -17.624 -12.6445 -12.1976 -9.63381 -40.7083 -40.4556 -9.50667 -4.65208 -1.42333 -4.33333 -32.3302 -1.42333 -32.3431 3.75 6.62591
1.48859 5.53396 -24.5417 -24.5398 11.8333 14.7433 -24.847 11.8333 -24.4789 14.3415 -24.5325 -24.2186 19.7772 -24.527 -24.3904 20.0234 -16.2012 -61.924 -59.014 -55.6314
-16.465 -49.9233 -47.5481 -42.2025 -39.4675 -33.7567 -31.3814 -25.6733 -22.8782 -8.41255 -17.59 -15.2147 -8.23567 -9.50667 -7.13141 -1.42333 5.65269 9.03526 14.7433 18.1259
-0.068623 -0.53211 -0.282549 0.09066 -35.1584 -30.4821 -26.3297 -0.291667 0.074896 -23.41 -20.5 -0.299159 -0.269156 -15.3267 -12.1531 15.4356 16.1163 -8.39031 -4.07838 15.8844
15.8608 3.75 15.8916 0.84 3.75 15.9292 11.8333 15.8825 15.8612 9.23774 11.8333 19.9167 17.0067 19.9167 -42.2371 -38.7492 -45.0262 -35.1261 -31.4933 -27.0427
-43.3734 -23.41 -20.5805 -43.5064 -43.5064 -15.9681 -12.4167 -27.3397 -8.07148 -4.33333 -27.3397 0.84 3.79209 -19.2564 8.92333 11.8767 -19.2564 16.4773 19.9167 -3.08974
-56.875 -54.1827 -48.7917 -48.7917 -48.7917 -58.0067 -40.7083 -32.5743 -58.4159 -24.5417 -24.5417 -24.5417 -16.4583 -0.291667 -8.375 -0.291667 -0.291667 -52.8333 15.875 -49.9233
-49.9289 15.875 15.875 -2.91722 -48.7917 -48.7927 -45.1445 -41.84 -48.7917 -48.7675 -24.5417 -24.6976 -33.8724 -24.5417 -24.7168 -0.284174 -25.7818 -0.448789 -0.300475 -0.524939
15.6841 15.1883 15.8492 16.0377 -43.5064 -48.7917 -48.7917 -24.5417 -24.5417 -0.291667 -0.072473 -60.9167 -58.1778 15.875 -52.8333 -50.0945 -44.75 -42.0112 -48.7917 -36.6667
-33.9278 -48.5109 -28.5833 -25.8445 -20.5 -17.7612 -12.4167 -9.67784 -4.33333 -1.59451 -24.4771 3.75 6.48882 -24.5554 11.8333 14.5722 19.9167 -66.0 -66.0 -66.0
25.0 -0.301102 -0.34911 25.0 25.0 15.7998 15.8621 25.0 25.0 -48.7917 -0.291667 15.875 -27.2655 -19.101 -13.8157 25.0 -38.0657 -59.6731 21.0593 21.0412
21.0593 21.2787 21.0593 25.0 -50.2467 -51.4985 -55.3652 6.08176 -9.89132 -2.19345 14.0893 -59.9653 21.3956 -10.194 25.0 -58.8249 -50.8114 16.5772 -50.3405 22.4181
-63.3037 -63.3342 22.2438 22.376 22.3596 25.0 8.88835 -7.08931 25.0 -17.0371 -8.65304 -40.7948 -33.1785 25.0 -0.447404 -24.66 -55.476 -17.7614 25.0 25.0
25.0 22.7764 22.5383 22.6822 22.7935 22.5795 25.0 25.0 25.0 25.0 25.0 -16.5746 25.0 25.0 25.0 25.0 25.0 25.0 25.0 25.0
25.0 25.0 -47.8356 25.0 25.0 25.0 25.0 22.3431 25.0 25.0 25.0 8.00997 25.0 25.0 25.0 -32.6247 -16.4865 -8.7353 -16.5925 -24.5787
15.5197 -48.8 -3.54916 -18.0456 -50.0292 9.07787 -42.369 14.2267 25.0 25.0 8.92333 17.0067 19.9167 -24.7671 21.8647 -28.4804 -15.6358 -59.1297 10.7444 -38.4823
-5.19876 2.33324 25.0 25.0 25.0 25.0 18.6101 25.0 25.0 25.0 25.0 25.0 25.0 25.0 25.0 25.0 25.0 25.0 25.0 25.0
-63.4405 25.0 25.0 -63.3047 25.0 25.0 22.3593 25.0 25.0 25.0 21.9701 25.0 -40.2677 -48.5466 0.601484 15.7495 13.5784 -46.1045 22.4689 22.6478
22.641 22.7158 7.84348 -0.080631 15.884 -40.7855 -24.3275 -0.165375 9.03598 -39.3389 -31.4274 1.07775 -23.2884 25.0 25.0 -12.3137 -52.3143 -44.4931 -4.36205 20.0565
7.74156 -33.1471 -16.6233 -8.78619 -16.1998 -25.1589 15.9987 -48.8146 -48.8566 -66.0 -66.0 -44.115 -55.42 -14.3843 6.36317 -6.50919 -41.7797 14.293 -60.7249 -60.7362
-60.7861 -60.2022 -52.8333 -52.8333 -52.8333 -52.5917 -53.1853 -44.75 -44.75 -44.8753 -44.7242 -44.9079 -44.5312 -36.6667 -36.6667 -36.6667 -36.7666 -36.6667 -28.5833 -28.342
-28.5833 -28.5052 -20.5 -20.6075 -20.5049 -20.4742 -20.5587 -12.3866 -12.3909 -12.2299 -12.4032 -4.30754 -4.28335 -4.31308 4.02135 3.77579 3.75 3.75 11.8333 11.8333
11.8333 19.5937 19.8524 19.973 20.0181 -60.7362 -60.7362 -52.8333 -52.8333 -44.75 -44.75 -36.6667 -36.6667 -28.5833 -28.5833 -20.5 -20.5 -12.4167 -12.4167 -4.33333
-4.07257 3.77421 11.6949 11.7502 11.8207 19.9496 -60.7362 -52.8333 -44.75 -36.6905 -36.6667 -20.2751 -12.6186 -4.54835 3.75 11.8333 20.0839 -63.6971 -63.6406 -63.6709
-63.6254 -63.6893 -63.6298 -63.5235 -63.6774 -8.98328 22.0175 7.82685 7.42979 7.62916 7.79167 7.79167 7.79167 7.79167 7.71255 -57.1198 -40.7131 -40.7495 -32.6538 -16.3168
-8.28204 -56.8398 -56.6926 -56.6926 -56.6926 -56.6926 -56.6926 -56.3881 -40.7085 -40.7083 -40.7083 -40.7083 -40.7083 -40.7083 -40.687 -32.5898 -32.625 -32.625 -32.625 -32.8545
-32.7191 -32.5872 -32.7327 -16.4231 -16.4583 -16.4583 -16.8571 -16.6279 -8.60113 -16.4583 -16.7127 -8.37513 -8.375 -8.613 -8.3537 -8.6105 -8.68036 15.7354 -48.7918 -48.7917
-48.7917 -48.7917 -48.7917 -48.7917 -49.1864 -24.5065 -24.5417 -24.5417 -24.5417 -24.1963 -24.4949 -0.291798 -0.538286 0.003548 -0.270367 -0.291667 -0.270367 -0.275753 15.5111 15.7331
15.6131 15.6926 15.6926 15.6926 15.9413 -34.4789 -1.8646 17.274 -26.127 -1.69071 7.79167 -32.625 -16.4583 -8.375 -59.9071 -35.7136 -16.7982 -10.7444 -27.4517 -24.5417
-0.291667 -62.0033 21.0033 -63.9035 -63.5487 -63.6754 -63.6069 -63.5487 -63.4831 -63.646 -63.5983 22.3546 22.4519 22.4583 22.259 -63.5487 -63.556 22.3089 21.9643 -8.375
10.6431 -59.9241 -51.5057 -51.8289 -40.6298 -32.625 13.1869 -11.4229 -43.7003 -37.3514 4.56942 12.6462 8.3661 7.95279 -32.8841 -16.6106 -48.6333 -24.6771 -0.083326 15.8873
-25.1752 -0.867351 16.4472 -0.130539 16.0729 -60.0619 -34.3852 -7.98186 21.0593 25.0 6.54978 6.31444 5.95758 6.16601 6.76505 -33.8624 -33.873 -34.0244 -33.8624 -34.0885
-17.6475 -17.9157 -17.9201 -9.51939 -15.1176 6.25447 9.30026 -9.55694 -9.55375 -57.9546 -58.028 -50.0301 -50.3019 -42.0251 -42.0201 -25.9511 -26.2366 -7.15567 14.234 14.2481
-9.80016 -58.2487 -57.9061 -58.2598 -50.1552 -50.0295 -50.2431 -42.0092 -42.0251 -42.2895 -25.9534 -25.748 -1.54105 15.2955 13.6504 14.397 14.5446 -26.2265 -33.8007 -17.3959
-9.46857 -1.65514 -1.32454 -1.78584 -1.52521 1.33676 -57.9941 -26.4026 14.2509 17.1939 -1.5434 -23.0961 9.13342 -55.1091 -47.2356 -39.3278 -31.0756 -14.7032 -6.85414 1.0561
16.8365 -22.9325 -63.7382 -63.4332 -63.3234 -63.4424 -63.4847 -63.4476 -63.4312 -58.1952 25.0 25.0 25.0 22.6053 -46.3572 -9.45512 -42.3898 -33.7178 -63.4343 -63.4886
-63.4163 -63.4323 22.2558 22.52 22.6047 22.1135 -39.304 -46.7963 -58.5058 -41.8839 -34.0015 -26.2337 -1.06891 11.0561 -5.11058 -62.391 22.2133 22.5276 6.38158 14.2888
-66.0 25.0 25.0 25.0 -8.41599 -38.9354 10.8814 -11.1916 2.295 18.6761 -2.87833 22.3192 22.2735 22.2176 22.4622 21.9267 25.0 4.99359 4.88926 -11.3231
-10.687 -22.3343 -25.1656 -47.7399 25.0 -66.0 25.0 25.0 25.0 25.0 25.0 25.0 4.04224 -66.0 -66.0 -8.23076 -17.969 2.97971 -5.319 -27.1843
13.4526 -29.6021 -2.93429 13.5694 -55.6874 -66.0 -31.5543 -12.437 -36.6667 -28.4748 -20.2869 3.96172 12.0077 -39.8012 -13.6498 -62.3351 -39.9688 -45.0683 -39.4034 -60.4914
-60.5144 -60.8167 -60.6435 -60.5199 -60.6994 -60.5178 -60.6629 -52.6035 -52.8433 -52.8326 -52.8326 -52.8443 -52.8376 -52.8138 -52.935 -44.435 -44.7496 -44.7496 -44.7496 -44.7513
-44.7499 -44.7523 -45.0659 -36.5828 -36.6688 -36.6688 -36.6688 -36.6673 -36.6661 -36.6666 -36.6935 -28.6169 -28.5853 -28.5853 -28.5817 -28.5823 -28.5592 -28.5831 -28.7174 -20.1556
-20.4996 -20.5001 -20.4992 -20.5016 -20.5113 -20.5008 -20.555 -12.1991 -12.4183 -12.4174 -12.4156 -12.4152 -12.4185 -12.4151 -12.4656 -4.29731 -4.33524 -4.33386 -4.31174 -4.32937
-4.33366 -4.33167 -4.26539 3.73617 3.74996 3.75304 3.74248 3.74915 3.74982 3.75015 4.08016 11.864 11.8373 11.8347 11.8363 11.8339 11.8349 11.8344 11.9406 19.7192
19.5587 19.6317 19.5401 20.0113 19.796 19.8756 19.9599 -66.0 -66.0 -66.0 -66.0 -66.0 -53.1615 -44.75 -4.79166 -57.6808 -35.8923 -3.20167 15.875 11.9979
-8.52682 4.99359 -59.6961 -52.3941 -51.677 -40.7431 -7.8169 -51.7741 -32.0967 0.266798 15.735 8.02484 -8.14183 20.1411 -27.3397 -27.5911 -17.9684 -44.0973 1.57037 -22.6628
25.0 -46.5971 8.69553 -28.3958 9.78544 18.3707 22.5216 21.0593 20.6594 20.629 21.0593 20.3661 -48.3902 -61.9329 -62.3986 -53.9105 -54.175 -37.9105 -37.8993 10.6836
10.5848 -61.8014 -61.8998 -62.3668 -62.3382 -54.6625 -53.8984 -54.352 -54.3719 -38.0581 -37.9105 -29.7796 -30.2388 -5.54161 -5.51684 -5.77705 2.53888 10.2754 -45.8114 -45.976
-29.8622 -29.7926 -29.9987 -22.1065 -21.928 -13.6021 -13.8161 -13.7976 -14.1628 18.4355 18.4115 -62.0097 -54.2281 -45.9409 -45.8114 -46.5316 -21.747 -21.7406 -18.4345 2.30535
2.72152 1.76441 10.6786 18.7195 18.4226 13.7768 -51.6132 -30.2146 -13.5554 -5.42669 2.40172 18.2896 15.875 -61.1687 -60.8335 -61.0045 -60.5553 -61.0409 -60.2746 -60.7896
-61.2417 -52.8333 -52.5545 -52.8334 -52.8661 -52.8318 -53.248 -52.6223 -53.2797 -44.75 -44.8153 -44.75 -44.8022 -44.745 -44.6308 -44.5692 -44.8363 -36.6667 -36.6764 -36.6667
-36.699 -36.6667 -36.6316 -36.6639 -36.5202 -28.5833 -28.8345 -28.3372 -29.0803 -28.5798 -28.9602 -28.5689 -28.86 -20.4984 -20.4982 -20.2317 -20.7563 -20.4961 -20.4972 -20.5
-20.514 -12.4119 -12.3042 -12.5313 -12.4499 -12.4142 -12.3131 -11.8705 -12.3905 -4.3326 -4.58595 -4.32712 -4.89139 -4.32707 -4.49904 -4.65538 -3.97088 3.50139 3.74737 3.75407
3.75338 3.75 3.86815 3.74518 3.85817 11.7627 11.7728 11.8333 11.7438 11.8333 11.9973 11.8327 12.0838 19.9328 20.1192 19.853 20.1291 20.0077 20.3653 19.5384
-63.7147 -63.7852 -55.7754 -55.6314 -47.5481 -47.7188 -47.5481 -39.5755 -39.5582 -44.75 -31.4999 -31.4865 -36.6222 -23.3654 -23.2981 -15.3212 -7.24273 0.951923 -60.8445 -60.8368
-60.8647 -60.9167 -52.8333 -52.8333 -52.8333 -44.75 -44.75 -44.75 -44.75 -36.6667 -36.6667 -36.6667 -36.6667 -28.5833 -28.5833 -28.5833 -20.5 -20.6207 -12.4167 -4.33333
3.71705 -20.5 -12.4167 -4.33333 -4.46759 3.75 3.75 3.75 11.8333 11.8333 11.8333 19.7572 19.9167 19.8165 19.732 -66.0 -66.0 -66.0 -15.2147 1.47315
8.951 17.1186 17.346 25.0 25.0 -63.4518 -55.7749 -47.699 -39.5678 -31.4779 -23.2922 -7.24278 0.787683 9.03526 17.1861 25.0 25.0 -61.0045 -60.7749 -61.0591
-60.6134 -52.8334 -52.935 -52.8334 -52.55 -44.75 -44.8876 -44.75 -44.8136 -36.671 -36.6999 -36.6667 -36.6769 -28.5946 -28.8292 -28.5833 -28.8398 -20.5113 -20.6518 -20.5
-20.5387 -12.4167 -12.3054 -12.4167 -12.5608 -4.33333 -4.58492 -4.08715 -4.59709 3.75789 3.5061 3.77103 3.73373 12.0957 11.5664 11.4903 11.6817 19.4564 19.7976 19.8113
19.9612 -63.46 -63.6818 -12.7356 -12.6318 25.0 25.0 -55.775 -55.8675 -47.6927 -39.5678 -31.4826 -23.432 -15.3398 -7.22826 0.857857 8.6503 -60.8656 -60.8118 -52.8333
-52.8333 -44.75 -44.75 -36.6667 -36.6667 -28.5833 -28.5833 -20.5 -20.5 -12.4167 -12.4167 -4.33333 -4.33333 3.75 11.8333 19.3081 -66.0 -66.0 -66.0 -15.2147
0.743443 17.207 -63.7827 -55.8288 -31.5425 -23.2981 -15.2147 8.65207 17.1944 -61.0045 -60.8921 -52.8334 -52.7485 -44.75 -44.8345 -36.6667 -36.5208 -28.489 -28.4723 -20.781
-20.6177 -12.3251 -12.1841 -4.70729 -4.50542 3.75 3.52371 11.8334 11.7897 19.8191 -60.8368 -52.8333 -44.75 -36.6667 -20.5 -4.33333 3.75 11.8333 19.9167 -66.0
-66.0 -57.5278 -29.8855 -6.24787 -8.53988 -17.7095 14.476 -54.0511 9.72531 -13.4073 -53.8966 6.90002 6.55374 6.60764 6.25353 6.15997 6.27739 9.00292 -34.0065 -34.1786
-34.1229 -33.8019 -17.8673 -18.27 -18.0188 -18.3496 -9.75566 -15.1801 -6.93972 -58.7335 -49.7243 -50.3158 -42.2151 -34.1668 -34.1663 -26.1591 -18.1402 -17.9694 -17.8699 -10.0466
-9.8206 -15.1582 -9.96046 14.9376 14.3813 -26.0341 -9.96863 -57.957 -58.2297 -58.0491 -58.4947 -58.2185 -49.7527 -49.9802 -49.9989 -50.2695 -55.347 -42.2909 -42.2871 -42.2879
-42.3183 -47.6737 -25.5962 -25.9719 -26.0816 -25.3556 -25.6272 -30.5554 -1.79706 -1.38803 -1.44392 -1.74363 14.4012 14.1895 14.59 14.5788 14.6876 -23.204 -1.35452 -1.36458
-1.1723 16.8283 17.5617 5.65178 -2.46889 13.7365 4.87164 -59.0488 -43.4439 -35.6019 -27.484 -19.34 -11.2459 -3.16157 -51.5719 -47.6614 -43.0689 -62.5427 -54.6275 -38.4803
-30.6047 -21.9242 12.7547 -66.0 22.2955 -7.6574 20.9038 22.6916 -62.9622 -63.9087 -64.236 -57.0896 22.6196 22.8604 22.1774 22.9787 -62.1253 -42.7325 -42.4079 -10.3762
-10.5762 -38.4472 -10.5518 -10.4408 -6.43785 -34.9375 -63.2578 -63.489 -63.1137 -63.4609 -63.3727 -63.6117 -63.4756 7.44203 7.59544 7.70854 7.36391 8.06062 8.14148 7.80132
8.13439 7.79167 8.10457 7.79167 7.8813 7.79167 7.97592 7.80133 7.79167 7.79167 7.79167 7.79167 7.79167 7.79167 7.90952 7.79167 -35.4231 -35.4231 -35.4231 -35.4231
-35.2913 4.99103 5.01292 4.99359 4.99359 5.11714 4.99359 -57.2072 -56.7256 -56.898 -56.8608 -56.8495 -56.6082 -56.8475 -56.8213 -56.8981 -56.9513 -56.8443 -57.0019 -56.8265
-56.9693 -56.9045 -56.6268 -40.6046 -40.7164 -40.7083 -40.6019 -40.7083 -40.602 -40.7083 -40.609 -40.7083 -40.8601 -40.7083 -40.6963 -40.7013 -40.5487 -40.666 -40.9748 -33.029
-32.6468 -32.625 -32.512 -32.625 -32.5107 -32.625 -32.6174 -32.7848 -32.8643 -32.6328 -32.4801 -32.62 -32.5547 -32.5907 -32.5714 -16.7929 -16.5346 -16.4583 -16.3982 -16.4583
-16.4592 -16.5655 -16.4889 -16.3672 -16.0917 -16.4609 -16.4737 -16.6237 -15.7607 -16.2756 -16.2702 -8.94022 -8.7478 -8.375 -8.26424 -8.53561 -8.57597 -8.3735 -8.38967 -8.83684
-8.37861 -8.39131 -8.54501 -8.56233 -8.40746 -8.9255 -8.51459 -59.8087 -59.6251 -59.6731 -59.6731 -59.6731 -59.918 -59.6731 -8.375 -59.6731 13.0564 -51.5897 -51.5897 -51.5897
-51.5897 -51.3496 -40.7083 -11.1731 -11.1731 -11.1893 -8.375 13.124 12.9024 -57.1829 -56.875 -56.875 -56.875 -56.875 -56.875 -40.7083 -40.7083 -40.7083 -40.7083 -40.7083
-40.7083 -40.7083 -32.625 -32.625 -32.625 -32.625 -32.3178 -32.625 -32.1751 -16.751 -16.4583 -16.4583 -16.4583 -8.375 -8.375 -8.06776 -8.375 -59.785 -59.9183 -35.3611
-40.7083 -16.4583 -16.4583 -8.375 -8.375 -11.3271 13.0769 13.0769 13.0769 -32.7922 -32.5635 -16.6842 13.4034 12.6718 -27.3397 -20.6917 -10.7857 -2.99553 -27.3397 -27.3397
-27.3397 -27.3397 -27.3397 -27.3397 -19.2564 -19.2564 -19.3283 -19.2083 -19.4052 -3.08974 -3.08974 -2.70442 -28.3026 -27.4517 -29.6834 -2.93602 -49.2081 -48.5659 -48.7917 -48.5192
-48.7917 -48.4223 -48.7917 -48.4469 -48.7917 -48.718 -48.7917 -48.5138 -48.8888 -48.615 -48.5299 -24.9524 -24.6778 -24.5417 -24.474 -24.5417 -24.3693 -24.5382 -24.518 -24.6994
-24.3284 -24.5674 -24.5353 -24.3122 -24.7844 -24.7405 -0.841258 -0.362899 -0.446116 -0.24825 -0.506562 -0.22375 0.191084 -0.25744 -0.278611 -0.28607 -0.291403 -0.258055 -0.284644 -0.158481
0.126627 0.178915 15.6521 15.6178 15.9211 15.917 15.7249 16.1187 15.4899 16.1141 15.85 16.1063 15.8411 15.9906 15.8894 16.0936 15.6774 15.5551 -43.4153 -43.5064
-43.5064 -43.5064 -43.5707 -48.7917 -48.7917 -48.7917 -48.7917 -48.7917 -48.7917 -48.7917 -24.5417 -24.5417 -24.5417 -24.5417 -24.5417 -0.574086 -0.327399 15.875 -48.8359 -24.4906
-0.374667 -0.291667 -0.291667 -0.165374 15.875 15.875 15.875 15.875 15.9864 -48.7917 -24.6706 -24.5417 -64.1755 22.3244 22.1808 21.8624 22.0089 -47.4983 -39.7864 -39.7501
-7.20742 -31.0248 -47.2644 -23.3045 -58.6784 -33.8212 -26.1701 -60.8009 -48.6815 11.2115 -1.53873 -62.0033 21.0033 3.02761 -21.3911 -63.6212 -63.0318 -63.0079 22.2691 22.3487
22.0719 22.0849 -2.38556 18.0644 -19.3944 -52.4199 -66.0 -66.0 -66.0 -66.0 -66.0 -66.0 -66.0 -38.8569 25.0 4.78218 21.0593 -18.8915 -18.483 -0.46175
5.29753 -25.2412 -50.3722 -12.4183 -4.38784 -36.7322 -28.5235 19.949 -3.99254 3.8752 20.1009 -28.137 -9.78633 4.70135 -58.1963 -39.5288 -28.5999 -20.5123 -15.0134 -25.863
-45.0903 -44.8546 -11.0176 11.8893 -66.0 -7.26829 -15.0889 -55.5596 -47.56 17.3575 -60.8166 -66.0 -66.0 -61.1211 12.6154 19.6781 -12.0519 -66.0 25.0 25.0
25.0 -49.9468 -66.0 -6.59818 -2.34187 6.24201 -34.2698 -9.84053 -57.8608 -50.1421 -50.1786 -4.60071 0.225139 17.0404 -23.5699 -48.5122 20.6652 25.0 22.3689 17.601
5.79378 13.8854 -17.133 -15.5307 -39.7885 -36.2406 -28.3198 -20.2 -12.0582 3.70285 12.3413 -45.1259 -12.2171 22.5386 -14.7444 -9.83 -51.7979 -54.2841 25.0 9.71197
-30.8117 -14.5884 -6.58272 -22.6254 17.8737 -50.9128 -46.1839 22.5145 22.0848 22.1336 21.939 22.5706 22.4059 22.6832 -63.3856 -63.2046 22.8951 22.4591 22.2796 -62.461
-61.8463 23.1598 23.4228 21.624 22.3829 22.9195 22.6055 -6.98785 -34.024 14.476 -47.0126 -17.8574 1.07947 17.274 -23.3077 25.0 -39.2533 -47.1787 25.0 0.322412
25.0 25.0 25.0 25.0 9.16108 -7.00559 -55.7639 -47.4223 -39.8169 -31.7265 -15.3425 16.7497 0.80471 -23.6779 22.5697 17.8958 -63.4583 -63.4583 -63.4583 -63.4583
-63.4583 -63.3058 -63.4583 25.0 -19.7997 9.21021 9.93354 -6.55808 11.591 1.15533 1.85039 16.9439 17.6498 -58.3593 -42.7683 -22.7533 1.47742 -18.3201 -26.861 -2.1239
19.6667 -13.1939 -66.0 9.24826 -55.2973 -55.4514 -38.434 -39.3078 -31.044 -15.1222 -6.57753 -22.9628 16.8899 17.1081 1.50229 7.04774 6.33667 -9.49171 -57.9927 -42.3681
-34.0498 -17.9438 -1.20129 14.5102 -1.74667 14.42 -30.8745 -6.92437 14.3608 -47.7055 7.58824 -15.8094 25.0 7.21514 15.2958 -63.4181 -63.3753 -63.9739 -63.2008 22.4583
22.4583 -63.3321 22.3559 22.4529 22.6782 -10.2823 -30.7186 -6.4611 -38.9174 -34.0832 -63.2969 22.5671 22.4583 22.724 22.6728 22.4685 25.0 7.05829 25.0 25.0
-13.4018 -6.94168 5.96254 5.93345 9.95109 9.73797 5.78371 5.76462 9.8312 9.81546 5.76728 5.77044 9.81534 9.81629 5.76612 5.89437 9.81576 9.98083 5.76752 9.79947
-54.8515 -54.8499 -54.8567 -54.8859 -54.872 -54.8572 -54.9011 -54.9602 -42.7327 -42.7295 -42.7327 -42.7278 -42.7349 -42.7416 -42.7005 -42.6191 -30.598 -30.5845 -30.5757 -30.5398
-30.5546 -30.5593 -30.5612 -30.7087 -54.8786 -42.7304 -30.5999 5.81039 5.80557 9.86031 9.78512 5.84385 5.82404 9.85244 9.78063 5.8042 5.78603 9.85649 9.86775 5.83282
5.84301 9.87031 9.75415 5.71052 9.81563 5.7649 5.83723 9.98184 9.82427 -54.7726 -54.8282 -54.8674 -54.8759 -54.9396 -54.9803 -54.8775 -55.0316 -42.7273 -42.7039 -42.7199
-42.7669 -42.7492 -42.5006 -42.7036 -43.2034 -30.6254 -30.633 -30.6062 -30.6563 -30.6372 -30.8517 -30.6393 -30.4262 -54.9187 -54.8817 -54.8586 -42.7165 -42.7294 -42.7336 -30.6681
-30.6 -30.604 5.76323 9.73844 5.70706 5.81077 9.77264 9.75618 -18.484 -18.4912 -14.4148 -14.4076 -18.4927 -18.6384 -14.287 -14.267 -18.4898 -18.5108 -14.4363 -14.4045
-18.511 -18.565 -14.5241 -14.3993 -10.4073 -10.3904 -6.43384 -6.45447 -10.3892 -10.4254 -6.35199 -6.35564 -10.4054 -10.3918 -6.33348 -6.35706 -10.3623 -10.3306 -6.22186 -6.03755
5.77001 5.76573 9.81679 9.8158 -54.6972 -54.8268 -54.8306 -42.6733 -42.7271 -42.7018 -30.6695 -30.6262 -30.6514 -18.4855 -14.4375 -10.397 -6.33986 -54.8784 -54.8653 -42.7329
-42.7294 -30.6631 -30.6717 5.72809 9.79484 -18.3312 -18.3567 -14.4701 -14.4341 -18.5482 -18.6854 -14.4808 -14.4509 -18.4419 -18.3539 -14.4149 -14.3364 -18.6559 -18.4369 -14.2043
-14.4057 -10.5729 -10.4182 -6.40123 -6.49609 -10.445 -10.4114 -6.62161 -6.36648 -10.3974 -10.3792 -6.36234 -6.33037 -10.5099 -10.3972 -6.26757 -6.19203 5.78806 5.77868 9.8571
9.81034 -54.95 -42.6842 -30.6811 -18.4733 -14.4253 -18.4792 -18.4836 -14.4313 -14.4206 -10.3736 -6.40083 -10.3968 -10.4242 -6.32593 -6.29417 -54.9288 -54.9275 -42.6119 -42.7964
-30.5317 -30.7296 -58.6104 -58.7059 -58.8912 -59.1387 -58.8795 -58.9204 -59.0445 -59.1578 -38.6874 -38.6842 -38.6841 -38.6675 -38.6855 -38.6834 -38.7057 -38.654 -34.6472 -34.6366
-34.6464 -34.6664 -34.6499 -34.6454 -34.6254 -34.6157 -59.1242 -38.6867 -34.6501 -18.4912 -14.4763 -18.4565 -18.4699 -14.4572 -14.4351 -10.3985 -6.36818 -10.4167 -10.444 -6.38444
-6.46536 -50.8169 -50.8161 -46.7685 -46.7555 -50.8175 -50.8173 -46.7679 -46.7551 -50.8197 -50.8274 -46.7636 -46.7452 -50.8096 -50.8165 -46.6029 -46.7538 -26.571 -26.5822 -22.5166
-22.5182 -26.5689 -26.7055 -22.6252 -22.4847 -26.5301 -26.5688 -22.5321 -22.5045 -26.5771 -26.5107 -22.5194 -22.4912 -18.4094 -18.3592 -14.4379 -14.4449 -10.3952 -10.4192 -6.39999
-6.39286 -2.29264 -2.23397 1.77197 1.76395 -2.28694 -2.29938 1.74138 1.73242 -2.33731 -2.31252 1.7285 1.74431 -2.28798 -2.27482 1.73435 1.89756 13.8168 14.0125 17.7542
17.7475 13.8356 13.85 17.9908 17.8617 13.8511 13.8472 17.7496 17.7825 13.8516 13.9425 18.007 17.9184 -50.817 -46.7699 -26.5708 -22.5169 -2.33849 1.7848 13.7259
17.4668 -58.9736 -58.613 -59.0512 -59.1383 -58.6182 -58.9187 -59.1332 -38.6495 -38.6913 -38.6551 -38.7068 -38.8081 -38.8421 -38.6242 -38.8213 -34.665 -34.6532 -34.6996 -34.7115
-34.6719 -34.7396 -34.6083 -34.5422 -59.3674 -59.1094 -58.7712 -38.6919 -38.6841 -38.673 -34.6413 -34.6605 -34.6494 -18.5748 -14.4704 -10.4409 -6.47539 -50.7911 -50.7223 -46.7186
-46.7681 -50.8037 -50.8321 -46.7446 -46.7931 -50.7533 -50.8328 -46.7466 -46.7815 -50.4119 -50.8729 -46.6475 -46.9474 -26.5987 -26.818 -22.4967 -22.5211 -26.5693 -26.6162 -22.5237
-22.6018 -26.5891 -22.5294 -22.4939 -26.5282 -26.9162 -22.5753 -22.499 -18.4654 -18.4731 -14.3826 -14.4313 -10.3507 -10.3884 -6.39382 -6.42771 -2.37824 -2.6409 1.72378 1.6617
-2.33949 1.73054 1.76825 -2.29841 -2.21157 1.77488 1.78924 -2.21019 -2.3283 1.7347 1.72681 13.8988 13.6448 17.8612 17.7343 13.8707 13.607 17.8046 17.5952 13.9148
13.8759 17.8972 17.707 13.9446 13.8042 18.0409 17.6717 -50.7945 -46.7562 -50.8171 -50.815 -46.7784 -46.7672 -26.8697 -22.5674 -26.5661 -26.5642 -22.5065 -22.5172 -2.61392
1.61975 -2.31143 -2.4078 1.6513 1.75288 13.8799 17.7333 13.8891 13.8211 18.0908 17.9186 -59.1182 -59.1618 -58.5146 -38.7013 -38.6494 -38.6902 -34.6772 -34.67 -34.6365
-59.138 -59.0222 -38.6719 -38.6811 -34.6555 -34.6272 -50.9123 -46.7368 -50.7434 -50.7182 -46.7284 -46.7392 -26.6389 -22.5828 -26.6259 -26.8776 -22.5203 -22.5151 -2.28732 1.73892
-2.39201 -2.63542 1.69465 1.73253 13.8274 17.9446 13.9011 13.6275 17.8646 17.6676 -50.8195 -50.8172 -46.7693 -46.7562 -26.5478 -26.5515 -22.5476 -22.5596 -2.34962 -2.36904
1.72691 1.73092 13.8555 13.8554 17.5498 17.7922 -59.1856 -38.6469 -34.6794 -59.261 -59.2399 -38.7259 -38.5601 -34.8096 -34.4204 -50.9623 -46.6959 -26.6946 -22.6527 -2.22022
1.6776 13.7079 -50.6426 -50.9715 -46.9115 -46.6448 -26.5635 -26.8236 -22.6044 -22.5927 -2.33146 -2.59166 1.69631 1.68409 13.8922 13.654 17.9282 17.8567 -14.5303 1.76108